8
Lattice="0.0 3.674285217972 3.674285217972 3.674285217972 0.0 3.674285217972 3.674285217972 3.674285217972 0.0" Properties=species:S:1:pos:R:3:forces:R:3 energy=7.354547608613757 pbc="T T T"
Pt       0.00000000       0.00000000       0.00000000       0.00000000      -0.00000000       0.00000000
Pt       1.83714261       1.83714261       0.00000000      -0.00000000       0.00000000       0.00000000
Pt       1.83714261       0.00000000       1.83714261      -0.00000000       0.00000000       0.00000000
Pt       3.67428522       1.83714261       1.83714261      -0.00000000      -0.00000000       0.00000000
Pt       0.00000000       1.83714261       1.83714261      -0.00000000       0.00000000      -0.00000000
Pt       1.83714261       3.67428522       1.83714261      -0.00000000      -0.00000000      -0.00000000
Pt       1.83714261       1.83714261       3.67428522      -0.00000000      -0.00000000      -0.00000000
Pt       3.67428522       3.67428522       3.67428522       0.00000000       0.00000000       0.00000000
8
Lattice="0.0 3.75330210438 3.75330210438 3.75330210438 0.0 3.75330210438 3.75330210438 3.75330210438 0.0" Properties=species:S:1:pos:R:3:forces:R:3 energy=6.425339993932539 pbc="T T T"
Pt       0.15513391       3.76122071       3.77069976      -6.22215033      -2.95116973      -1.63115013
Pt       1.86941740       5.42952022       3.76776989       1.68669569       8.23390102       1.64307439
Pt       5.47983629       3.77441305       1.82083055       3.73358154      -2.04781795       2.76973653
Pt       3.86175501       5.61132424       5.63141929      -3.10928726       1.53521049       1.17763174
Pt       7.39904726       5.69417836       5.61191949       1.09462953       0.96683514      -0.08312891
Pt       1.93868108       3.83439954       1.95444464       1.42993796      -5.15987730      -2.67554116
Pt       5.60620419       5.44076192       3.63608992       3.12969899       4.46617270       0.65869868
Pt       3.83692280       3.85422944       3.88261204      -1.74310601      -5.04325485      -1.85932112
8
Lattice="0.0 3.75330210438 3.75330210438 3.75330210438 0.0 3.75330210438 3.75330210438 3.75330210438 0.0" Properties=species:S:1:pos:R:3:forces:R:3 energy=6.861975054121103 pbc="T T T"
Pt       3.77540243       3.71925560       7.44882935       0.25503546      -2.31222272       3.39056206
Pt       5.58955000       5.56962421       7.48221898      -0.11529342       2.02068996       0.03447310
Pt       1.98018543       3.81137745       5.65519453      -5.20388269      -4.97817421      -0.58129638
Pt       3.60704751       1.72181692       1.90317833       2.44988108      10.03211117       1.04797196
Pt       3.75321248       5.52835392       1.88785001       0.99784267       1.47146940      -0.28247839
Pt       5.51075795       3.90885649       5.53662316       5.56937408      -5.45044899       4.31468296
Pt       5.68260658       5.61495670       3.80558068       0.35226738       4.59674406      -1.39251649
Pt       3.88751759       3.90915423       3.87890151      -4.30522442      -5.38016891      -6.53139877
8
Lattice="0.0 3.75330210438 3.75330210438 3.75330210438 0.0 3.75330210438 3.75330210438 3.75330210438 0.0" Properties=species:S:1:pos:R:3:forces:R:3 energy=7.450880337774834 pbc="T T T"
Pt       7.47471886       7.34630615       7.35308242      -3.64436173       4.06191587       6.06689548
Pt       5.57291307       1.85497822       3.77878953       2.94845486      -1.33957517      -2.95522809
Pt       1.86170606       0.20107826       1.86697264      -1.35046947      -2.78450155       0.99569863
Pt       3.79552227       5.60740700       5.56615885      -2.72097898       1.78317022       1.96950352
Pt       3.75167347       1.98107273       5.52146512      -4.22585154      -8.38197231       3.04182458
Pt       5.40936067       3.65818020       5.71325048       9.34594917       2.58209777      -1.52127945
Pt       5.52993234       5.66429943       3.90790513       2.86178041      -2.11807775      -2.51783943
Pt       3.82231020       3.54871677       3.78674879      -3.21452332       6.19694281      -5.07957554
8
Lattice="0.0 3.75330210438 3.75330210438 3.75330210438 0.0 3.75330210438 3.75330210438 3.75330210438 0.0" Properties=species:S:1:pos:R:3:forces:R:3 energy=5.9337668456273605 pbc="T T T"
Pt       0.10087056       3.72098977       3.76607675      -0.25810510       3.73258257      -1.24794006
Pt       1.90462834       2.00552421       0.16252963      -4.60393524      -0.25879982      -2.42521358
Pt       5.58303412       7.38166418       5.60391063       0.81663233       1.82947755       3.38282323
Pt       3.73854706       5.58193489       5.45911062       1.03785980       0.15867667       5.73550415
Pt       3.86349040       5.62494417       2.13084512       0.44736916       1.31118810      -4.43717766
Pt       5.75091739       3.94720962       5.60023209      -2.60132098      -2.41304731       1.02361381
Pt       2.00874236       1.87862464       3.80194431       0.57906568      -1.48032486      -2.42882824
Pt       3.56661906       3.79466967       3.76749428       4.58243418      -2.87975311       0.39721826
8
Lattice="0.0 3.75330210438 3.75330210438 3.75330210438 0.0 3.75330210438 3.75330210438 3.75330210438 0.0" Properties=species:S:1:pos:R:3:forces:R:3 energy=6.33666829042977 pbc="T T T"
Pt       0.14048396       3.77541421       3.73876937      -3.06678200      -0.00113643       1.63910031
Pt       1.88897097       1.93725375       0.24227700       1.11248863      -3.36137462      -1.82339382
Pt       5.43829230       3.51104940       1.94128047       4.72629881       5.49756050      -0.79188466
Pt       3.77345217       1.86097973       1.95385563       0.03132350      -4.74032259      -3.23783755
Pt       7.37084322       5.70012489       5.73528562       1.47089124      -3.07749128       0.15647529
Pt       1.90364174       3.65621668       1.98143923       0.37260532       4.86252499      -2.13747787
Pt       1.99856915       1.87148305       3.64247493      -3.65534568      -4.11370325       3.24098849
Pt       3.78643223       3.61712576       3.76468007      -0.99147969       4.93394279       2.95402980
8
Lattice="0.0 3.75330210438 3.75330210438 3.75330210438 0.0 3.75330210438 3.75330210438 3.75330210438 0.0" Properties=species:S:1:pos:R:3:forces:R:3 energy=5.238084150371833 pbc="T T T"
Pt       3.80297352       3.73947567       0.06476885       0.05406233      -1.92133999      -3.26355839
Pt       2.02895404       5.60653782       3.72988841      -2.41566277       1.61224437      -1.87339175
Pt       2.03457233       3.83004558       5.58300572      -0.88015479      -3.03664303       1.31096375
Pt       3.80755811       5.58361139       5.58338018      -0.39329422       1.22828162       3.55570507
Pt       0.02419623       1.68532303       1.70415927       0.36531135       5.10360003       2.96702647
Pt       1.82042230       3.65201899       1.90807579      -0.47611564      -1.60466266       0.06652884
Pt       5.53915075       5.48872279       3.89986698       2.47067523       2.11979866      -4.06647968
Pt       3.73072447       3.76005492       3.61082729       1.27517855      -3.50127888       1.30320513
8
Lattice="0.0 3.75330210438 3.75330210438 3.75330210438 0.0 3.75330210438 3.75330210438 3.75330210438 0.0" Properties=species:S:1:pos:R:3:forces:R:3 energy=5.511962195027991 pbc="T T T"
Pt       3.75835828       3.80329724       7.40701332      -0.66297495      -1.60739207       2.03320336
Pt       5.69931301       5.58812300       7.34814649      -0.99015248       2.45314479       2.38293767
Pt       5.56518248       3.81315962       1.90987606       1.55478859      -1.92763972      -3.43326354
Pt       3.63855444       1.93851802       1.86785236       4.12483215      -1.95650041      -3.60054445
Pt       3.79580934       1.90987637       5.51427153      -0.74977207       0.63573408      -0.18180761
Pt       1.91175077       3.69261338       2.03134899      -2.05462337       2.53160858      -7.20390844
Pt       1.94898521       1.88126461       3.65500294      -3.19112444      -0.98333800       5.36661482
Pt       3.75874538       3.76929140       3.63240729       1.96902657       0.85438305       4.63676786
8
Lattice="0.0 3.792810547584 3.792810547584 3.792810547584 0.0 3.792810547584 3.792810547584 3.792810547584 0.0" Properties=species:S:1:pos:R:3:forces:R:3 energy=2.5350300770178364 pbc="T T T"
Pt       0.00000000       0.00000000       0.00000000       0.00000000       0.00000000      -0.00000000
Pt       1.89640527       1.89640527       0.00000000       0.00000000      -0.00000000       0.00000000
Pt       1.89640527       0.00000000       1.89640527       0.00000000      -0.00000000      -0.00000000
Pt       3.79281055       1.89640527       1.89640527       0.00000000      -0.00000000       0.00000000
Pt       0.00000000       1.89640527       1.89640527      -0.00000000       0.00000000      -0.00000000
Pt       1.89640527       3.79281055       1.89640527       0.00000000      -0.00000000      -0.00000000
Pt       5.68921582       5.68921582       3.79281055      -0.00000000       0.00000000      -0.00000000
Pt       3.79281055       3.79281055       3.79281055      -0.00000000      -0.00000000       0.00000000
8
Lattice="0.0 3.85207321239 3.85207321239 3.85207321239 0.0 3.85207321239 3.85207321239 3.85207321239 0.0" Properties=species:S:1:pos:R:3:forces:R:3 energy=3.5268119750789992 pbc="T T T"
Pt       3.98523186       3.92360111       7.54960640      -0.50951040      -2.05038762       3.95415330
Pt       5.77727143       5.84024342       7.63213787       0.12377241       0.33708990       1.69548357
Pt       1.95258776       3.86292806       5.77853896      -4.25544596      -0.32611182       0.12759949
Pt       3.83461319       1.96933923       2.04634034       3.26962018       1.53494513      -4.49022055
Pt       7.60763986       5.88093723       5.80097283       1.40640998      -3.86470985      -0.18384290
Pt       1.97055037       3.73841299       1.93955029       0.85848218       2.56840563      -1.92096007
Pt       2.07449031       1.81805612       3.65430038      -4.55333042       0.35302997       5.06206989
Pt       3.67773598       3.87868023       4.09056995       3.66000175       1.44773841      -4.24428272
8
Lattice="0.0 3.85207321239 3.85207321239 3.85207321239 0.0 3.85207321239 3.85207321239 3.85207321239 0.0" Properties=species:S:1:pos:R:3:forces:R:3 energy=4.317717855224146 pbc="T T T"
Pt       3.89937180       7.63600384       3.87631716      -2.81510448       1.55989325      -0.51199847
Pt       5.60803626       2.00135089       3.69860108       5.32746983      -0.29494387       6.25371361
Pt       1.92654931       3.84005045       5.69741163       2.48747611       2.46963692       1.59632039
Pt       4.13925515       5.71832753       5.82535552     -10.03325367       1.41725028      -2.04285264
Pt       3.96166882       5.65659294       2.06027224      -1.59052110       2.18558550      -2.83117223
Pt       5.76589484       3.95332476       5.68672290       2.88939333      -4.28752041       0.73179233
Pt       5.67515680       5.89908946       3.90226044       5.33101320      -1.78750229      -2.89512157
Pt       3.86595783       3.91614932       3.90480648      -1.59647369      -1.26239920      -0.30068153
8
Lattice="0.0 3.85207321239 3.85207321239 3.85207321239 0.0 3.85207321239 3.85207321239 3.85207321239 0.0" Properties=species:S:1:pos:R:3:forces:R:3 energy=3.0041983222827184 pbc="T T T"
Pt       0.15513391       3.85999181       3.86947087      -4.49768639      -2.12530088      -1.17353463
Pt       1.91880295       5.57767688       3.86654099       1.22503233       5.94469786       1.15937531
Pt       5.62799296       3.87318416       1.87021610       2.72221255      -1.46880198       2.01154828
Pt       3.96052612       5.75948091       5.77957596      -2.23981309       1.09607780       0.83735979
Pt       7.59658948       5.84233503       5.76007615       0.81735271       0.66189122      -0.04579598
Pt       1.98806663       3.93317065       2.00383019       0.98826170      -3.70830607      -1.94302857
Pt       5.75436085       5.58891858       3.73486103       2.25048900       3.24545002       0.51335162
Pt       3.93569391       3.95300055       3.98138315      -1.26584911      -3.64570832      -1.35927546
8
Lattice="0.0 3.85207321239 3.85207321239 3.85207321239 0.0 3.85207321239 3.85207321239 3.85207321239 0.0" Properties=species:S:1:pos:R:3:forces:R:3 energy=3.5848224327883145 pbc="T T T"
Pt       3.81039743       3.84644653       7.49052682      -1.22403646      -0.73032528       4.95260143
Pt       2.09006369       5.59876626       3.76789848      -3.12036991       4.28319931       3.48767257
Pt       1.97632475       3.72754440       5.67231460      -1.37581623       0.56803077       0.26380447
Pt       3.76117245       1.98118201       2.15525741       1.62714410      -0.28720638      -4.92395926
Pt       3.85622715       5.66631727       1.97994244       0.94507205       0.48168337      -4.81820059
Pt       1.86642064       3.85016016       2.04353673       0.23208527      -0.77246767      -5.64237118
Pt       1.85124951       1.92693913       3.76426242      -0.19434893      -1.60940242       3.03668571
Pt       3.83642980       3.87773026       3.75319531       3.11027026      -1.93351185       3.64376640
8
Lattice="0.0 3.85207321239 3.85207321239 3.85207321239 0.0 3.85207321239 3.85207321239 3.85207321239 0.0" Properties=species:S:1:pos:R:3:forces:R:3 energy=2.296615543592452 pbc="T T T"
Pt       3.87645672       3.77734139       7.54802873      -0.65808624       1.85959005       1.75601244
Pt       5.73168451       5.74290358       7.57599724      -0.42294419       0.74980575       1.65922892
Pt       1.95496653       0.09800285       1.97382903      -1.79193509      -0.52882683      -0.49828574
Pt       3.89715503       5.85335416       5.72705264       0.60992718      -1.70053470       0.79537338
Pt       7.63357121       5.73567809       5.75489361       0.46333006      -0.78723866      -1.30003440
Pt       2.10755065       3.64259828       2.02963222      -3.15665483       2.62618470      -3.04282808
Pt       5.63469575       5.75028695       3.85802466       2.19710183      -1.54877174       1.10066342
Pt       3.72124200       3.85194458       3.97817791       2.75926137      -0.67020798      -0.47012985
8
Lattice="0.0 3.85207321239 3.85207321239 3.85207321239 0.0 3.85207321239 3.85207321239 3.85207321239 0.0" Properties=species:S:1:pos:R:3:forces:R:3 energy=2.4134941619113306 pbc="T T T"
Pt       0.05848758       0.12311957       0.08219003       0.63957638      -5.10251999      -2.00222898
Pt       5.69818698       1.96724193       3.83445755       4.48381853      -0.48461416      -0.03300165
Pt       5.77079262       7.64757979       5.76876329       1.93731093      -0.41402993      -0.34535781
Pt       3.93780332       5.69188749       5.77975793      -1.11466742      -0.19156134      -2.98491168
Pt       0.15651111       1.87912460       1.88680653      -1.68135762       1.93420947       3.50628591
Pt       2.00770331       3.85971074       1.91602730      -0.99770045      -0.79576164       0.33782962
Pt       2.08841232       1.79238244       3.83855999      -3.80847049       1.63507104      -0.06025561
Pt       3.80423914       3.69257571       3.76517728       0.54148978       3.41920662       1.58164048
8
Lattice="0.0 3.85207321239 3.85207321239 3.85207321239 0.0 3.85207321239 3.85207321239 3.85207321239 0.0" Properties=species:S:1:pos:R:3:forces:R:3 energy=2.952906968092975 pbc="T T T"
Pt       7.61934548       3.98266385       3.94449401       0.41777396      -3.26712489      -1.72914183
Pt       1.99007779       1.82056291       0.17977607      -1.23790860       3.42121077      -2.95285177
Pt       1.82475793       0.08236233       1.89657157       0.99548030      -5.17998028       1.13751936
Pt       3.79282616       1.78666390       2.03645457       2.61794162       2.62915730      -0.91103035
Pt       3.75883918       5.68379417       1.96969723      -0.69073075       4.80683136      -0.72559804
Pt       2.00553243       3.92402653       1.93480283      -2.74923563      -1.40624237       0.36105567
Pt       1.79376177       1.93121600       3.66859369       0.71562833       2.07965779       3.70387125
Pt       3.88482286       3.89969694       3.86891608      -0.06894928      -3.08350968       1.11617565
8
Lattice="0.0 3.832318990788 3.832318990788 3.832318990788 0.0 3.832318990788 3.832318990788 3.832318990788 0.0" Properties=species:S:1:pos:R:3:forces:R:3 energy=1.5995789458165746 pbc="T T T"
Pt       0.00000000       0.00000000       0.00000000      -0.00000000       0.00000000      -0.00000000
Pt       1.91615950       1.91615950       0.00000000      -0.00000000      -0.00000000       0.00000000
Pt       1.91615950       0.00000000       1.91615950      -0.00000000       0.00000000      -0.00000000
Pt       3.83231899       1.91615950       1.91615950       0.00000000       0.00000000      -0.00000000
Pt       0.00000000       1.91615950       1.91615950       0.00000000       0.00000000      -0.00000000
Pt       1.91615950       3.83231899       1.91615950      -0.00000000      -0.00000000       0.00000000
Pt       1.91615950       1.91615950       3.83231899      -0.00000000       0.00000000      -0.00000000
Pt       3.83231899       3.83231899       3.83231899       0.00000000       0.00000000       0.00000000
8
Lattice="0.0 3.871827433992 3.871827433992 3.871827433992 0.0 3.871827433992 3.871827433992 3.871827433992 0.0" Properties=species:S:1:pos:R:3:forces:R:3 energy=0.9250782058688856 pbc="T T T"
Pt       0.00000000       0.00000000       0.00000000       0.00000000      -0.00000000      -0.00000000
Pt       1.93591372       1.93591372       0.00000000      -0.00000000       0.00000000      -0.00000000
Pt       1.93591372       0.00000000       1.93591372       0.00000000       0.00000000       0.00000000
Pt       3.87182743       1.93591372       1.93591372       0.00000000       0.00000000      -0.00000000
Pt       0.00000000       1.93591372       1.93591372      -0.00000000       0.00000000       0.00000000
Pt       1.93591372       3.87182743       1.93591372       0.00000000      -0.00000000       0.00000000
Pt       5.80774115       5.80774115       3.87182743       0.00000000       0.00000000      -0.00000000
Pt       3.87182743       3.87182743       3.87182743       0.00000000       0.00000000      -0.00000000
8
Lattice="0.0 3.911335877196 3.911335877196 3.911335877196 0.0 3.911335877196 3.911335877196 3.911335877196 0.0" Properties=species:S:1:pos:R:3:forces:R:3 energy=0.4823779317730441 pbc="T T T"
Pt       0.00000000       0.00000000       0.00000000       0.00000000       0.00000000       0.00000000
Pt       1.95566794       1.95566794       0.00000000      -0.00000000       0.00000000       0.00000000
Pt       1.95566794       0.00000000       1.95566794      -0.00000000      -0.00000000       0.00000000
Pt       3.91133588       1.95566794       1.95566794      -0.00000000      -0.00000000       0.00000000
Pt       0.00000000       1.95566794       1.95566794      -0.00000000      -0.00000000       0.00000000
Pt       1.95566794       3.91133588       1.95566794      -0.00000000      -0.00000000       0.00000000
Pt       1.95566794       1.95566794       3.91133588      -0.00000000       0.00000000       0.00000000
Pt       3.91133588       3.91133588       3.91133588       0.00000000       0.00000000       0.00000000
8
Lattice="0.0 3.9508443204 3.9508443204 3.9508443204 0.0 3.9508443204 3.9508443204 3.9508443204 0.0" Properties=species:S:1:pos:R:3:forces:R:3 energy=0.7681122495332602 pbc="T T T"
Pt       3.91961147       0.03392847       3.93525347      -0.33834743      -0.97090930       0.20619452
Pt       5.87608751       5.94982337       7.72532812       0.78098214       0.34175879       2.61240959
Pt       5.81668028       7.79291207       5.89574948       1.14061391       1.76027870      -0.49945894
Pt       3.90346948       1.95536271       2.01094184      -0.44402519      -0.93060857      -2.04442835
Pt       4.01979609       2.01648113       5.86976864       0.00073739       0.16936012       0.14424069
Pt       2.03536123       3.93455069       2.13544361      -1.65777647      -0.00606266      -3.50513983
Pt       2.04358488       1.97691017       3.94206636      -1.59589744      -1.19580865       0.55831742
Pt       3.85263254       3.96301337       3.83710059       2.11371303       0.83199185       2.52786446
8
Lattice="0.0 3.9508443204 3.9508443204 3.9508443204 0.0 3.9508443204 3.9508443204 3.9508443204 0.0" Properties=species:S:1:pos:R:3:forces:R:3 energy=1.092884838343707 pbc="T T T"
Pt       3.96363919       7.74884129       3.89139752      -1.98950279       2.30156159      -0.96073800
Pt       1.98205520       5.80271699       3.88870746      -0.67538309       1.20115030       0.08937772
Pt       1.88652738       0.04989099       1.89673245       0.28576836      -0.18766175       2.48142505
Pt       3.96271868       5.85058017       5.97560317      -0.06903541       0.42096546       0.59116709
Pt       7.81774821       5.82476430       5.89201451       1.02254939       1.23973775      -0.40276951
Pt       2.16386856       3.92375303       1.83025023      -2.04119897      -0.40644851       0.36919323
Pt       1.86740626       2.23192982       3.92882204       2.22277570      -3.83998394      -0.64859450
Pt       3.94190428       3.97847847       4.11207044       1.24402678      -0.72932070      -1.51906085
8
Lattice="0.0 3.990352763604 3.990352763604 3.990352763604 0.0 3.990352763604 3.990352763604 3.990352763604 0.0" Properties=species:S:1:pos:R:3:forces:R:3 energy=-0.033238857276046474 pbc="T T T"
Pt       0.00000000       0.00000000       0.00000000       0.00000000      -0.00000000      -0.00000000
Pt       1.99517638       1.99517638       0.00000000       0.00000000      -0.00000000       0.00000000
Pt       1.99517638       0.00000000       1.99517638      -0.00000000       0.00000000       0.00000000
Pt       3.99035276       5.98552915       5.98552915       0.00000000       0.00000000       0.00000000
Pt       0.00000000       1.99517638       1.99517638       0.00000000       0.00000000      -0.00000000
Pt       5.98552915       3.99035276       5.98552915      -0.00000000       0.00000000       0.00000000
Pt       1.99517638       1.99517638       3.99035276      -0.00000000       0.00000000       0.00000000
Pt       3.99035276       3.99035276       3.99035276       0.00000000       0.00000000       0.00000000
8
Lattice="0.0 3.9508443204 3.9508443204 3.9508443204 0.0 3.9508443204 3.9508443204 3.9508443204 0.0" Properties=species:S:1:pos:R:3:forces:R:3 energy=1.5484760985009416 pbc="T T T"
Pt       3.94564790       3.93972472       0.10417968      -0.47558728      -0.28726527      -0.09877742
Pt       5.80059255       2.04996093       3.77973894       2.34758806      -1.23338628       3.24168801
Pt       5.90568004       3.92738719       2.08823656       1.68344021       0.01460310      -2.69509816
Pt       3.94958173       1.91410213       2.11279101      -1.57820547      -0.69088763      -3.29045820
Pt       0.16109920       1.90649933       2.04461453      -2.88676810       1.58280230      -2.45534849
Pt       5.88145492       3.96707857       5.95198939      -0.45557228       0.03571982      -1.67729068
Pt       5.79872089       5.93266692       3.84465866       1.71486831      -0.11638382       3.28128290
Pt       3.85190748       3.90507200       3.75242616      -0.34976339       0.69479775       3.69400215
8
Lattice="0.0 4.049615428409999 4.049615428409999 4.049615428409999 0.0 4.049615428409999 4.049615428409999 4.049615428409999 0.0" Properties=species:S:1:pos:R:3:forces:R:3 energy=1.187781486593849 pbc="T T T"
Pt       4.05755827       0.21902024       4.03612621       1.16243255      -3.28629208      -0.84730893
Pt       2.04085951       2.06907750       0.06233914       0.89757657       0.45799297      -0.81149167
Pt       2.12569806       4.08904031       6.04078447      -0.27351320      -0.64206928       0.30899855
Pt       3.98502478       2.10535348       2.06645200       1.55029738      -0.69808978      -1.84881794
Pt       0.05746197       1.91464058       1.92533203       0.65430367       1.82988977       2.48843312
Pt       2.15935966       4.10780221       2.07853159      -2.08347726      -0.16417575      -0.52160048
Pt       2.23151240       1.99577530       4.10975194      -3.64129233       0.49507573      -0.25048563
Pt       3.99316275       3.93282026       3.94741520       1.73367238       2.00766850       1.48227274
8
Lattice="0.0 4.049615428409999 4.049615428409999 4.049615428409999 0.0 4.049615428409999 4.049615428409999 4.049615428409999 0.0" Properties=species:S:1:pos:R:3:forces:R:3 energy=0.5288009648784282 pbc="T T T"
Pt       4.01472598       0.09837034       4.10770771       0.39222646      -1.20038414       0.48261103
Pt       6.08145159       2.10256098       4.10781130       0.68401068       0.60746920      -0.91933089
Pt       2.17198677       4.21593353       6.04830543      -1.50686741      -1.93810081       0.51637399
Pt       3.98074775       1.95531539       2.21885006       1.32033432       1.94889581      -1.42273676
Pt       0.18054152       2.07043910       1.96732651      -1.34259903       0.45933533       1.00113654
Pt       6.08584119       4.20097351       6.10953633      -0.05382039      -0.33632782      -0.22492655
Pt       2.01591439       2.11650314       4.10017994      -0.70708221      -0.01339828       0.50740212
Pt       3.96808832       4.08853052       4.00711918       1.21379781       0.47251043       0.05947039
8
Lattice="0.0 4.049615428409999 4.049615428409999 4.049615428409999 0.0 4.049615428409999 4.049615428409999 4.049615428409999 0.0" Properties=species:S:1:pos:R:3:forces:R:3 energy=0.5372675155949764 pbc="T T T"
Pt       4.07399894       3.97488361       7.94311316      -0.32194173       0.86996597       0.87933666
Pt       6.02799783       6.03921691       7.97108167      -0.17426065       0.34003872       0.81166238
Pt       2.05373764       0.09800285       2.07260014      -0.82857561      -0.30959401      -0.24943636
Pt       4.09469724       6.14966749       6.02336596       0.28456381      -0.86740518       0.37277269
Pt       8.02865564       6.03199142       6.05120693       0.23757921      -0.34863803      -0.57654268
Pt       2.20632176       3.84014049       2.12840333      -1.58131981       1.34200978      -1.43702924
Pt       5.93100908       6.04660027       4.05556688       1.05895984      -0.71398103       0.48595473
Pt       3.91878421       4.04948680       4.17572012       1.32499528      -0.31239653      -0.28671813
8
Lattice="0.0 4.049615428409999 4.049615428409999 4.049615428409999 0.0 4.049615428409999 4.049615428409999 4.049615428409999 0.0" Properties=species:S:1:pos:R:3:forces:R:3 energy=0.46615525160723337 pbc="T T T"
Pt       7.91025719       4.00825621       3.97301283       0.84178156       0.38242668       0.53420687
Pt       1.93239505       1.88264793       0.08052560      -0.33241230       1.21653354      -1.29922354
Pt       2.13969389       4.16655827       5.99422221      -1.48554707      -0.71952510       1.49030101
Pt       4.12186319       6.07972185       5.95627113      -0.15050004       0.36260861       1.26203918
Pt       8.03161574       6.05780048       6.12116666       0.36628094      -0.27981934      -0.01772313
Pt       2.05817963       3.96464965       2.03167599      -0.49708247       0.29426509      -0.03568486
Pt       2.02666591       2.15636102       4.16609288       0.01045231      -0.97328067      -1.18594611
Pt       4.01558256       4.05523876       4.07220329       1.24702704      -0.28320885      -0.74796945
8
Lattice="0.0 4.049615428409999 4.049615428409999 4.049615428409999 0.0 4.049615428409999 4.049615428409999 4.049615428409999 0.0" Properties=species:S:1:pos:R:3:forces:R:3 energy=0.7905453843841315 pbc="T T T"
Pt       0.17886285       4.09326641       4.05926518      -1.43552005      -1.68269897       0.61147267
Pt       5.88807387       1.99706889       4.01413953       2.18805289       0.78497636      -0.13924916
Pt       6.06614899       8.03653079       6.07004133      -0.21158253      -0.27394438      -0.01830009
Pt       4.00189363       1.89342124       2.11326995       0.37283674       1.42382097      -1.56834781
Pt       4.13774723       2.19576502       6.07942651      -1.37053466      -1.47860837       0.27226520
Pt       6.03395540       3.99507943       5.91977541       1.67075598       0.81533855       0.66778576
Pt       2.12304446       1.91470095       3.93111078      -0.60463196       0.90976977       1.27353978
Pt       4.02905044       4.19823026       4.07328706      -0.60937643      -0.49865392      -1.09916651
8
Lattice="0.0 4.049615428409999 4.049615428409999 4.049615428409999 0.0 4.049615428409999 4.049615428409999 4.049615428409999 0.0" Properties=species:S:1:pos:R:3:forces:R:3 energy=1.0835569792243405 pbc="T T T"
Pt       4.07535542       8.00838271       4.01176512       0.40186524       0.59417427       0.61918724
Pt       6.02093158       2.11061505       4.00831443      -0.77589089       0.10605339       0.98969483
Pt       2.07462657       0.20101992       2.15109387      -0.73364741      -1.79141605      -1.81393504
Pt       4.00569394       1.99016392       2.07033968       0.06379756       1.61542737       0.22551303
Pt       7.93236459       5.98821459       6.12371423       1.45811594       2.04442620      -1.65968990
Pt       6.06199180       4.24312906       6.01257888      -0.62148148      -2.59928656       0.65986496
Pt       5.96973924       5.98546138       4.05101948       1.31190550       2.69700122       0.17486537
Pt       4.03353246       4.27265139       4.00970386      -1.10466456      -2.66638041       0.80449927
8